Program Version,EnergyPlus, Version 25.1.0-1c11a3d85f, YMD=2025.08.26 01:37
1,5,Environment Title[],Latitude[deg],Longitude[deg],Time Zone[],Elevation[m]
2,8,Day of Simulation[],Month[],Day of Month[],DST Indicator[1=yes 0=no],Hour[],StartMinute[],EndMinute[],DayType
3,5,Cumulative Day of Simulation[],Month[],Day of Month[],DST Indicator[1=yes 0=no],DayType  ! When Daily Meters Requested
4,2,Cumulative Days of Simulation[],Month[]  ! When Monthly Meters Requested
5,1,Cumulative Days of Simulation[] ! When Run Period Meters Requested
6,1,Calendar Year of Simulation[] ! When Annual Meters Requested
23,9,Electricity:Facility [J] !Monthly [Value,Min,Day,Hour,Minute,Max,Day,Hour,Minute]
414,9,Electricity:HVAC [J] !Monthly [Value,Min,Day,Hour,Minute,Max,Day,Hour,Minute]
25,11,Electricity:Facility [J] !RunPeriod [Value,Min,Month,Day,Hour,Minute,Max,Month,Day,Hour,Minute]
416,11,Electricity:HVAC [J] !RunPeriod [Value,Min,Month,Day,Hour,Minute,Max,Month,Day,Hour,Minute]
End of Data Dictionary
1,DENVER CENTENNIAL ANN HTG 99.6% CONDNS DB,  37.62,-122.40,  -8.00,   2.00
4,1,12
23,8865547488.29183,61566302.00202659,21, 1,40,61566302.002026625,21, 4,40
414,589945302.9720482,4096842.3817503257,21, 2,50,4096842.3817503294,21, 1,20
5,1
25,8865547488.29183,61566302.00202659,12,21, 1,40,61566302.002026625,12,21, 4,40
416,589945302.9720482,4096842.3817503257,12,21, 2,50,4096842.3817503294,12,21, 1,20
1,DENVER CENTENNIAL ANN CLG 1% CONDNS DB=>MWB,  37.62,-122.40,  -8.00,   2.00
4,1, 7
23,6371273126.341439,42168265.9718958,21, 5,60,-99999999999999.0,21, 4,40
414,1162601444.5850608,99999999999999.0,21, 2,50,10053850.140778404,21,15,60
5,1
25,6371273126.341439,42168265.9718958, 7,21, 5,60,-99999999999999.0,12,21, 4,40
416,1162601444.5850608,99999999999999.0,12,21, 2,50,10053850.140778404, 7,21,15,60
1,JAN,  37.62,-122.40,  -8.00,   2.00
4,31, 1
23,279270729467.16895,99999999999999.0,21, 5,60,64593027.507240824,19,13,60
414,33733161122.610138,99999999999999.0,21, 2,50,-99999999999999.0,21,15,60
5,31
25,279270729467.16895,99999999999999.0, 7,21, 5,60,64593027.507240824, 1,19,13,60
416,33733161122.610138,99999999999999.0,12,21, 2,50,-99999999999999.0, 7,21,15,60
1,JUL,  37.62,-122.40,  -8.00,   2.00
4,31, 7
23,187502534364.85385,40621538.13282691,22, 4,60,-99999999999999.0,19,13,60
414,26035330686.632343,99999999999999.0,21, 2,50,-99999999999999.0,21,15,60
5,31
25,187502534364.85385,40621538.13282691, 7,22, 4,60,-99999999999999.0, 1,19,13,60
416,26035330686.632343,99999999999999.0,12,21, 2,50,-99999999999999.0, 7,21,15,60
End of Data
 Number of Records Written=          16
