Program Version,EnergyPlus, Version 25.1.0-1c11a3d85f, YMD=2025.08.17 23:07
1,5,Environment Title[],Latitude[deg],Longitude[deg],Time Zone[],Elevation[m]
2,8,Day of Simulation[],Month[],Day of Month[],DST Indicator[1=yes 0=no],Hour[],StartMinute[],EndMinute[],DayType
3,5,Cumulative Day of Simulation[],Month[],Day of Month[],DST Indicator[1=yes 0=no],DayType  ! When Daily Report Variables Requested
4,2,Cumulative Days of Simulation[],Month[]  ! When Monthly Report Variables Requested
5,1,Cumulative Days of Simulation[] ! When Run Period Report Variables Requested
6,1,Calendar Year of Simulation[] ! When Annual Report Variables Requested
7,1,Environment,Site Outdoor Air Drybulb Temperature [C] !Hourly
8,1,Environment,Site Outdoor Air Dewpoint Temperature [C] !Hourly
9,1,Environment,Site Outdoor Air Wetbulb Temperature [C] !Hourly
10,1,Environment,Site Outdoor Air Humidity Ratio [kgWater/kgDryAir] !Hourly
11,1,Environment,Site Outdoor Air Relative Humidity [%] !Hourly
12,1,DATA CENTER SERVERS,ITE CPU Electricity Rate [W] !Hourly
13,1,DATA CENTER SERVERS,ITE Fan Electricity Rate [W] !Hourly
14,1,DATA CENTER SERVERS,ITE UPS Electricity Rate [W] !Hourly
15,1,DATA CENTER SERVERS,ITE CPU Electricity Rate at Design Inlet Conditions [W] !Hourly
16,1,DATA CENTER SERVERS,ITE Fan Electricity Rate at Design Inlet Conditions [W] !Hourly
17,1,DATA CENTER SERVERS,ITE UPS Heat Gain to Zone Rate [W] !Hourly
18,1,DATA CENTER SERVERS,ITE Total Heat Gain to Zone Rate [W] !Hourly
214,1,DATA CENTER SERVERS,ITE Standard Density Air Volume Flow Rate [m3/s] !Hourly
215,1,DATA CENTER SERVERS,ITE Air Mass Flow Rate [kg/s] !Hourly
216,1,DATA CENTER SERVERS,ITE Air Inlet Dry-Bulb Temperature [C] !Hourly
217,1,DATA CENTER SERVERS,ITE Air Inlet Dewpoint Temperature [C] !Hourly
218,1,DATA CENTER SERVERS,ITE Air Inlet Relative Humidity [%] !Hourly
219,1,DATA CENTER SERVERS,ITE Air Outlet Dry-Bulb Temperature [C] !Hourly
220,1,DATA CENTER SERVERS,ITE Supply Heat Index [] !Hourly
221,1,DATA CENTER SERVERS,ITE Air Inlet Operating Range Exceeded Time [hr] !Hourly
222,1,DATA CENTER SERVERS,ITE Air Inlet Dry-Bulb Temperature Above Operating Range Time [hr] !Hourly
223,1,DATA CENTER SERVERS,ITE Air Inlet Dry-Bulb Temperature Below Operating Range Time [hr] !Hourly
224,1,DATA CENTER SERVERS,ITE Air Inlet Dewpoint Temperature Above Operating Range Time [hr] !Hourly
225,1,DATA CENTER SERVERS,ITE Air Inlet Dewpoint Temperature Below Operating Range Time [hr] !Hourly
226,1,DATA CENTER SERVERS,ITE Air Inlet Relative Humidity Above Operating Range Time [hr] !Hourly
227,1,DATA CENTER SERVERS,ITE Air Inlet Relative Humidity Below Operating Range Time [hr] !Hourly
228,1,DATA CENTER SERVERS,ITE Air Inlet Dry-Bulb Temperature Difference Above Operating Range [deltaC] !Hourly
229,1,DATA CENTER SERVERS,ITE Air Inlet Dry-Bulb Temperature Difference Below Operating Range [deltaC] !Hourly
230,1,DATA CENTER SERVERS,ITE Air Inlet Dewpoint Temperature Difference Above Operating Range [deltaC] !Hourly
231,1,DATA CENTER SERVERS,ITE Air Inlet Dewpoint Temperature Difference Below Operating Range [deltaC] !Hourly
232,1,DATA CENTER SERVERS,ITE Air Inlet Relative Humidity Difference Above Operating Range [%] !Hourly
233,1,DATA CENTER SERVERS,ITE Air Inlet Relative Humidity Difference Below Operating Range [%] !Hourly
234,1,MAIN ZONE,Zone ITE Adjusted Return Air Temperature [C] !Hourly
235,1,MAIN ZONE,Zone ITE Standard Density Air Volume Flow Rate [m3/s] !Hourly
236,1,MAIN ZONE,Zone ITE Air Mass Flow Rate [kg/s] !Hourly
237,1,EMS,CRAC total system Power [W] !Hourly
238,1,EMS,CRAC Net Sensible Capacity [W] !Hourly
239,1,EMS,CRAC SCOP [] !Hourly
240,1,EMS,PUE [] !Hourly
241,1,MAIN ZONE,Zone Mean Air Temperature [C] !Hourly
242,1,MAIN ZONE,Zone Air Heat Balance Internal Convective Heat Gain Rate [W] !Hourly
243,1,MAIN ZONE,Zone Air Heat Balance Surface Convection Rate [W] !Hourly
244,1,MAIN ZONE,Zone Air Heat Balance Interzone Air Transfer Rate [W] !Hourly
245,1,MAIN ZONE,Zone Air Heat Balance Outdoor Air Transfer Rate [W] !Hourly
246,1,MAIN ZONE,Zone Air Heat Balance System Air Transfer Rate [W] !Hourly
247,1,MAIN ZONE,Zone Air Heat Balance System Convective Heat Gain Rate [W] !Hourly
248,1,MAIN ZONE,Zone Air Heat Balance Air Energy Storage Rate [W] !Hourly
249,1,MAIN ZONE,Zone Air Temperature [C] !Hourly
384,1,MAIN ZONE,Zone Predicted Sensible Load to Cooling Setpoint Heat Transfer Rate [W] !Hourly
447,1,MAIN ZONE BASEBOARD,Baseboard Electricity Rate [W] !Hourly
448,1,EC PLUG FAN 1,Fan Electricity Rate [W] !Hourly
449,1,EC PLUG FAN 1,Fan Rise in Air Temperature [deltaC] !Hourly
475,1,DX COOLING COIL SYSTEM 1,Coil System Part Load Ratio [] !Hourly
476,1,DX COOLING COIL SYSTEM 1,Coil System Frost Control Status [] !Hourly
477,1,MAIN COOLING COIL 1,Cooling Coil Total Cooling Rate [W] !Hourly
491,1,MAIN COOLING COIL 1,Cooling Coil Sensible Cooling Rate [W] !Hourly
492,1,MAIN COOLING COIL 1,Cooling Coil Latent Cooling Rate [W] !Hourly
493,1,MAIN COOLING COIL 1,Cooling Coil Electricity Rate [W] !Hourly
519,1,MAIN COOLING COIL 1,Cooling Coil Runtime Fraction [] !Hourly
667,1,Whole Building,Facility Total Building Electricity Demand Rate [W] !Hourly
668,1,Whole Building,Facility Total HVAC Electricity Demand Rate [W] !Hourly
669,1,Whole Building,Facility Total Electricity Demand Rate [W] !Hourly
671,1,SYSTEM AVAILABILITY SCHEDULE,Schedule Value [] !Hourly
672,1,ZONE CONTROL TYPE SCHED,Schedule Value [] !Hourly
673,1,HEATING SETPOINT SCHEDULE,Schedule Value [] !Hourly
674,1,SUPPLY AIR SETPOINT SCHEDULE,Schedule Value [] !Hourly
675,1,COOLING RETURN AIR SETPOINT SCHEDULE,Schedule Value [] !Hourly
676,1,DATA CENTER CPU LOADING SCHEDULE,Schedule Value [] !Hourly
677,1,DATA CENTER OPERATION SCHEDULE,Schedule Value [] !Hourly
678,1,LIEBERT ECONOPHASE QUADRATIC FIT,Performance Curve Input Variable 1 Value [] !Hourly
679,1,LIEBERT ECONOPHASE QUADRATIC FIT,Performance Curve Input Variable 2 Value [] !Hourly
680,1,LIEBERT ECONOPHASE QUADRATIC FIT,Performance Curve Output Value [] !Hourly
681,1,DATA CENTER SERVERS POWER FLOADTEMP,Performance Curve Input Variable 1 Value [] !Hourly
682,1,DATA CENTER SERVERS POWER FLOADTEMP,Performance Curve Input Variable 2 Value [] !Hourly
683,1,DATA CENTER SERVERS POWER FLOADTEMP,Performance Curve Output Value [] !Hourly
684,1,DATA CENTER SERVERS AIRFLOW FLOADTEMP,Performance Curve Input Variable 1 Value [] !Hourly
685,1,DATA CENTER SERVERS AIRFLOW FLOADTEMP,Performance Curve Input Variable 2 Value [] !Hourly
686,1,DATA CENTER SERVERS AIRFLOW FLOADTEMP,Performance Curve Output Value [] !Hourly
687,1,DATA CENTER RECIRCULATION FLOADTEMP,Performance Curve Input Variable 1 Value [] !Hourly
688,1,DATA CENTER RECIRCULATION FLOADTEMP,Performance Curve Input Variable 2 Value [] !Hourly
689,1,DATA CENTER RECIRCULATION FLOADTEMP,Performance Curve Output Value [] !Hourly
690,1,HPACCOOLCAPFFF,Performance Curve Input Variable 1 Value [] !Hourly
691,1,HPACCOOLCAPFFF,Performance Curve Output Value [] !Hourly
692,1,HPACCOOLEIRFFF,Performance Curve Input Variable 1 Value [] !Hourly
693,1,HPACCOOLEIRFFF,Performance Curve Output Value [] !Hourly
694,1,HPACCOOLPLFFPLR,Performance Curve Input Variable 1 Value [] !Hourly
695,1,HPACCOOLPLFFPLR,Performance Curve Output Value [] !Hourly
696,1,ECM FANPOWER FFLOW,Performance Curve Input Variable 1 Value [] !Hourly
697,1,ECM FANPOWER FFLOW,Performance Curve Output Value [] !Hourly
698,1,UPS EFFICIENCY FPLR,Performance Curve Input Variable 1 Value [] !Hourly
699,1,UPS EFFICIENCY FPLR,Performance Curve Output Value [] !Hourly
700,1,COOL CAP MOD FUNC OF TEMPERATURE,Performance Curve Input Variable 1 Value [] !Hourly
701,1,COOL CAP MOD FUNC OF TEMPERATURE,Performance Curve Input Variable 2 Value [] !Hourly
702,1,COOL CAP MOD FUNC OF TEMPERATURE,Performance Curve Output Value [] !Hourly
703,1,LIEBERT ECONOPHASE EIR FUNC T,Performance Curve Input Variable 1 Value [] !Hourly
704,1,LIEBERT ECONOPHASE EIR FUNC T,Performance Curve Input Variable 2 Value [] !Hourly
705,1,LIEBERT ECONOPHASE EIR FUNC T,Performance Curve Output Value [] !Hourly
706,1,SUPPLY INLET NODE,System Node Temperature [C] !Hourly
707,1,SUPPLY INLET NODE,System Node Mass Flow Rate [kg/s] !Hourly
708,1,SUPPLY INLET NODE,System Node Humidity Ratio [kgWater/kgDryAir] !Hourly
709,1,SUPPLY INLET NODE,System Node Setpoint Temperature [C] !Hourly
710,1,SUPPLY INLET NODE,System Node Relative Humidity [%] !Hourly
711,1,SUPPLY INLET NODE,System Node Standard Density Volume Flow Rate [m3/s] !Hourly
712,1,SUPPLY INLET NODE,System Node Dewpoint Temperature [C] !Hourly
713,1,MAIN COOLING COIL 1 OUTLET NODE,System Node Temperature [C] !Hourly
714,1,MAIN COOLING COIL 1 OUTLET NODE,System Node Mass Flow Rate [kg/s] !Hourly
715,1,MAIN COOLING COIL 1 OUTLET NODE,System Node Humidity Ratio [kgWater/kgDryAir] !Hourly
716,1,MAIN COOLING COIL 1 OUTLET NODE,System Node Setpoint Temperature [C] !Hourly
717,1,MAIN COOLING COIL 1 OUTLET NODE,System Node Standard Density Volume Flow Rate [m3/s] !Hourly
718,1,MAIN COOLING COIL 1 OUTLET NODE,System Node Dewpoint Temperature [C] !Hourly
719,1,SUPPLY OUTLET NODE,System Node Temperature [C] !Hourly
720,1,SUPPLY OUTLET NODE,System Node Mass Flow Rate [kg/s] !Hourly
721,1,SUPPLY OUTLET NODE,System Node Humidity Ratio [kgWater/kgDryAir] !Hourly
722,1,SUPPLY OUTLET NODE,System Node Setpoint Temperature [C] !Hourly
723,1,SUPPLY OUTLET NODE,System Node Standard Density Volume Flow Rate [m3/s] !Hourly
724,1,MAIN ZONE NODE,System Node Temperature [C] !Hourly
725,1,MAIN ZONE NODE,System Node Mass Flow Rate [kg/s] !Hourly
726,1,MAIN ZONE NODE,System Node Humidity Ratio [kgWater/kgDryAir] !Hourly
727,1,MAIN ZONE NODE,System Node Setpoint Temperature [C] !Hourly
728,1,MAIN ZONE NODE,System Node Standard Density Volume Flow Rate [m3/s] !Hourly
729,1,MAIN ZONE INLET NODE,System Node Temperature [C] !Hourly
730,1,MAIN ZONE INLET NODE,System Node Mass Flow Rate [kg/s] !Hourly
731,1,MAIN ZONE INLET NODE,System Node Humidity Ratio [kgWater/kgDryAir] !Hourly
732,1,MAIN ZONE INLET NODE,System Node Setpoint Temperature [C] !Hourly
733,1,MAIN ZONE INLET NODE,System Node Standard Density Volume Flow Rate [m3/s] !Hourly
734,1,MAIN ZONE OUTLET NODE,System Node Temperature [C] !Hourly
735,1,MAIN ZONE OUTLET NODE,System Node Mass Flow Rate [kg/s] !Hourly
736,1,MAIN ZONE OUTLET NODE,System Node Humidity Ratio [kgWater/kgDryAir] !Hourly
737,1,MAIN ZONE OUTLET NODE,System Node Setpoint Temperature [C] !Hourly
738,1,MAIN ZONE OUTLET NODE,System Node Standard Density Volume Flow Rate [m3/s] !Hourly
739,1,ZONE EQUIPMENT INLET NODE,System Node Temperature [C] !Hourly
740,1,ZONE EQUIPMENT INLET NODE,System Node Mass Flow Rate [kg/s] !Hourly
741,1,ZONE EQUIPMENT INLET NODE,System Node Humidity Ratio [kgWater/kgDryAir] !Hourly
742,1,ZONE EQUIPMENT INLET NODE,System Node Setpoint Temperature [C] !Hourly
743,1,ZONE EQUIPMENT INLET NODE,System Node Standard Density Volume Flow Rate [m3/s] !Hourly
744,1,ZONE EQUIPMENT OUTLET NODE,System Node Temperature [C] !Hourly
745,1,ZONE EQUIPMENT OUTLET NODE,System Node Mass Flow Rate [kg/s] !Hourly
746,1,ZONE EQUIPMENT OUTLET NODE,System Node Humidity Ratio [kgWater/kgDryAir] !Hourly
747,1,ZONE EQUIPMENT OUTLET NODE,System Node Setpoint Temperature [C] !Hourly
748,1,ZONE EQUIPMENT OUTLET NODE,System Node Standard Density Volume Flow Rate [m3/s] !Hourly
749,1,MAIN ZONE ATU IN NODE,System Node Temperature [C] !Hourly
750,1,MAIN ZONE ATU IN NODE,System Node Mass Flow Rate [kg/s] !Hourly
751,1,MAIN ZONE ATU IN NODE,System Node Humidity Ratio [kgWater/kgDryAir] !Hourly
752,1,MAIN ZONE ATU IN NODE,System Node Setpoint Temperature [C] !Hourly
753,1,MAIN ZONE ATU IN NODE,System Node Standard Density Volume Flow Rate [m3/s] !Hourly
End of Data Dictionary
1,DENVER CENTENNIAL ANN HTG 99.6% CONDNS DB,  37.62,-122.40,  -8.00,   2.00
2,1,12,21, 0, 1, 0.00,60.00,WinterDesignDay
7,-18.8
8,-18.8
9,-18.8
10,0.0007118208673643848
11,100.0
12,48538.68281570028
13,38536.25600290015
14,8707.49388186004
15,30001.499999999996
16,20000.0
17,8707.49388186004
18,95782.43270046047
214,9.485109698314671
215,11.42029203521397
216,24.26812800145007
217,-18.802687632739666
218,3.816361708457879
219,31.846007034826357
220,0.20881449776412367
221,0.9999999999999999
222,0.0
223,0.0
224,0.0
225,0.9999999999999999
226,0.0
227,0.9999999999999999
228,0.0
229,0.0
230,0.0
231,-6.802687632739669
232,0.0
233,-4.183638291542121
234,30.846007034826357
235,9.485109698314671
236,11.42029203521397
237,6828.070636250544
238,88328.73176910577
239,12.936118630666238
240,1.0712872960494113
241,30.84600703482636
242,95782.43270046047
243,-7453.700931354689
244,0.0
245,0.0
246,-88328.73176910575
247,0.0
248,-3.668518022314056e-12
249,30.84600703482636
384,-88328.73176910578
447,0.0
448,5915.340422099998
449,0.5744571847205222
475,0.6303128870561737
476,0.0
477,94244.07219120575
491,94244.07219120573
492,2.6678511252005894e-11
493,912.7302141505476
519,0.6673177001541171
667,95782.43270046044
668,6828.070636250547
669,102610.50333671099
671,1.0
672,4.0
673,15.0
674,10.0
675,29.3
676,1.0
677,1.0
678,-999.0
679,-999.0
680,-999.0
681,1.0
682,15.0
683,1.0000499999999999
684,1.0
685,15.0
686,1.0
687,-999.0
688,-999.0
689,-999.0
690,1.0411162204876847
691,1.008223244097537
692,1.0411162204876847
693,0.9946817227642378
694,0.6303128870561737
695,0.944546933058426
696,1.0
697,1.0
698,1.7414987763720085
699,1.0
700,15.994746197532033
701,-18.8
702,1.0
703,16.01102199526721
704,-18.8
705,0.04200000000000001
706,30.84600703482636
707,10.234197113879107
708,0.0007116387581183
709,-999.0
710,2.5977197002530126
711,8.5
712,-18.802687632739666
713,21.693670816729547
714,10.234197113879107
715,0.0007116387581183
716,21.693670816729547
717,8.5
718,-18.802687632739666
719,22.26812800145007
720,10.234197113879107
721,0.0007116387581183
722,22.268128001450066
723,8.5
724,30.84600703482636
725,10.234197113879107
726,0.0007116387581183
727,29.3
728,8.5
729,22.26812800145007
730,10.234197113879107
731,0.0007116387581183
732,-999.0
733,8.5
734,30.84600703482636
735,10.234197113879107
736,0.0007116387581183
737,-999.0
738,8.5
739,22.26812800145007
740,10.234197113879107
741,0.0007116387581183
742,-999.0
743,8.5
744,30.84600703482636
745,10.234197113879107
746,0.0007116387581183
747,-999.0
748,8.5
749,22.26812800145007
750,10.234197113879107
751,0.0007116387581183
752,-999.0
753,8.5
2,1,12,21, 0, 2, 0.00,60.00,WinterDesignDay
7,-18.8
8,-18.8
9,-18.8
10,0.0007118208673643848
11,100.0
12,48538.682815700275
13,38536.25600290013
14,8707.493881860037
15,30001.499999999996
16,20000.0
17,8707.493881860037
18,95782.43270046043
214,9.485109698314668
215,11.420292035213967
216,24.268128001450066
217,-18.802687632739666
218,3.81636170845788
219,31.846007034826357
220,0.20881449776412364
221,0.9999999999999999
222,0.0
223,0.0
224,0.0
225,0.9999999999999999
226,0.0
227,0.9999999999999999
228,0.0
229,0.0
230,0.0
231,-6.802687632739669
232,0.0
233,-4.18363829154212
234,30.846007034826357
235,9.485109698314668
236,11.420292035213967
237,6828.070636250547
238,88328.7317691057
239,12.936118630666227
240,1.0712872960494113
241,30.846007034826354
242,95782.43270046043
243,-7453.700931354684
244,0.0
245,0.0
246,-88328.73176910571
247,0.0
248,1.222839340771352e-12
249,30.846007034826354
384,-88328.73176910573
447,0.0
448,5915.340422099999
449,0.5744571847205222
475,0.6303128870561732
476,0.0
477,94244.07219120569
491,94244.07219120568
492,1.9402553637822468e-11
493,912.730214150547
519,0.6673177001541166
667,95782.43270046043
668,6828.070636250547
669,102610.50333671097
671,1.0
672,4.0
673,15.0
674,10.0
675,29.3
676,1.0
677,1.0
678,-999.0
679,-999.0
680,-999.0
681,1.0
682,15.0
683,1.0000499999999999
684,1.0
685,15.0
686,1.0
687,-999.0
688,-999.0
689,-999.0
690,1.0411162204876847
691,1.008223244097537
692,1.0411162204876847
693,0.9946817227642378
694,0.6303128870561732
695,0.944546933058426
696,1.0
697,1.0
698,1.7414987763720082
699,1.0
700,15.994746197532033
701,-18.8
702,1.0
703,16.01102199526721
704,-18.8
705,0.04200000000000001
706,30.846007034826354
707,10.234197113879107
708,0.0007116387581183001
709,-999.0
710,2.597719700253013
711,8.5
712,-18.802687632739666
713,21.69367081672954
714,10.234197113879107
715,0.0007116387581183001
716,21.69367081672954
717,8.5
718,-18.802687632739666
719,22.268128001450066
720,10.234197113879107
721,0.0007116387581183001
722,22.268128001450066
723,8.5
724,30.846007034826354
725,10.234197113879107
726,0.0007116387581183001
727,29.3
728,8.5
729,22.268128001450066
730,10.234197113879107
731,0.0007116387581183001
732,-999.0
733,8.5
734,30.846007034826354
735,10.234197113879107
736,0.0007116387581183001
737,-999.0
738,8.5
739,22.268128001450066
740,10.234197113879107
741,0.0007116387581183001
742,-999.0
743,8.5
744,30.846007034826354
745,10.234197113879107
746,0.0007116387581183001
747,-999.0
748,8.5
749,22.268128001450066
750,10.234197113879107
751,0.0007116387581183001
752,-999.0
753,8.5
2,1,12,21, 0, 3, 0.00,60.00,WinterDesignDay
7,-18.8
8,-18.8
9,-18.8
10,0.0007118208673643848
11,100.0
12,48538.682815700275
13,38536.256002900154
14,8707.49388186004
15,30001.499999999996
16,20000.0
17,8707.49388186004
18,95782.43270046047
214,9.485109698314671
215,11.42029203521397
216,24.268128001450066
217,-18.802687632739666
218,3.81636170845788
219,31.846007034826357
220,0.20881449776412367
221,0.9999999999999999
222,0.0
223,0.0
224,0.0
225,0.9999999999999999
226,0.0
227,0.9999999999999999
228,0.0
229,0.0
230,0.0
231,-6.802687632739669
232,0.0
233,-4.18363829154212
234,30.846007034826357
235,9.485109698314671
236,11.42029203521397
237,6828.070636250548
238,88328.73176910573
239,12.936118630666229
240,1.0712872960494113
241,30.846007034826357
242,95782.43270046047
243,-7453.700931354691
244,0.0
245,0.0
246,-88328.73176910575
247,0.0
248,1.222839340771352e-12
249,30.846007034826357
384,-88328.73176910577
447,0.0
448,5915.340422100001
449,0.5744571847205222
475,0.6303128870561737
476,0.0
477,94244.07219120573
491,94244.0721912057
492,2.4253192047278087e-11
493,912.7302141505476
519,0.6673177001541171
667,95782.43270046047
668,6828.070636250548
669,102610.50333671102
671,1.0
672,4.0
673,15.0
674,10.0
675,29.3
676,1.0
677,1.0
678,-999.0
679,-999.0
680,-999.0
681,1.0
682,15.0
683,1.0000499999999999
684,1.0
685,15.0
686,1.0
687,-999.0
688,-999.0
689,-999.0
690,1.0411162204876847
691,1.008223244097537
692,1.0411162204876847
693,0.9946817227642378
694,0.6303128870561737
695,0.944546933058426
696,1.0
697,1.0
698,1.7414987763720085
699,1.0
700,15.994746197532033
701,-18.8
702,1.0
703,16.01102199526721
704,-18.8
705,0.04200000000000001
706,30.846007034826357
707,10.234197113879107
708,0.0007116387581183001
709,-999.0
710,2.597719700253013
711,8.5
712,-18.802687632739666
713,21.693670816729547
714,10.234197113879107
715,0.0007116387581183001
716,21.693670816729547
717,8.5
718,-18.802687632739666
719,22.26812800145007
720,10.234197113879107
721,0.0007116387581183001
722,22.268128001450066
723,8.5
724,30.846007034826357
725,10.234197113879107
726,0.0007116387581183001
727,29.3
728,8.5
729,22.26812800145007
730,10.234197113879107
731,0.0007116387581183001
732,-999.0
733,8.5
734,30.846007034826357
735,10.234197113879107
736,0.0007116387581183001
737,-999.0
738,8.5
739,22.26812800145007
740,10.234197113879107
741,0.0007116387581183001
742,-999.0
743,8.5
744,30.846007034826357
745,10.234197113879107
746,0.0007116387581183001
747,-999.0
748,8.5
749,22.26812800145007
750,10.234197113879107
751,0.0007116387581183001
752,-999.0
753,8.5
2,1,12,21, 0, 4, 0.00,60.00,WinterDesignDay
7,-18.8
8,-18.8
9,-18.8
10,0.0007118208673643848
11,100.0
12,48538.68281570028
13,38536.256002900154
14,8707.493881860042
15,30001.499999999996
16,20000.0
17,8707.493881860042
18,95782.43270046049
214,9.485109698314673
215,11.420292035213974
216,24.268128001450076
217,-18.802687632739666
218,3.81636170845788
219,31.84600703482636
220,0.20881449776412372
221,0.9999999999999999
222,0.0
223,0.0
224,0.0
225,0.9999999999999999
226,0.0
227,0.9999999999999999
228,0.0
229,0.0
230,0.0
231,-6.802687632739669
232,0.0
233,-4.18363829154212
234,30.84600703482636
235,9.485109698314673
236,11.420292035213974
237,6828.070636250549
238,88328.73176910573
239,12.936118630666229
240,1.0712872960494113
241,30.84600703482636
242,95782.43270046049
243,-7453.700931354699
244,0.0
245,0.0
246,-88328.73176910575
247,0.0
248,1.222839340771352e-12
249,30.84600703482636
384,-88328.73176910577
447,0.0
448,5915.340422100001
449,0.5744571847205222
475,0.6303128870561737
476,0.0
477,94244.07219120573
491,94244.07219120573
492,2.6678511252005894e-11
493,912.7302141505476
519,0.6673177001541171
667,95782.43270046047
668,6828.070636250549
669,102610.50333671102
671,1.0
672,4.0
673,15.0
674,10.0
675,29.3
676,1.0
677,1.0
678,-999.0
679,-999.0
680,-999.0
681,1.0
682,15.0
683,1.0000499999999999
684,1.0
685,15.0
686,1.0
687,-999.0
688,-999.0
689,-999.0
690,1.0411162204876847
691,1.008223244097537
692,1.0411162204876847
693,0.9946817227642378
694,0.6303128870561737
695,0.944546933058426
696,1.0
697,1.0
698,1.7414987763720087
699,1.0
700,15.994746197532033
701,-18.8
702,1.0
703,16.01102199526721
704,-18.8
705,0.04200000000000001
706,30.84600703482636
707,10.234197113879107
708,0.0007116387581183001
709,-999.0
710,2.597719700253013
711,8.5
712,-18.802687632739666
713,21.69367081672955
714,10.234197113879107
715,0.0007116387581183001
716,21.69367081672955
717,8.5
718,-18.802687632739666
719,22.26812800145007
720,10.234197113879107
721,0.0007116387581183001
722,22.26812800145007
723,8.5
724,30.84600703482636
725,10.234197113879107
726,0.0007116387581183001
727,29.3
728,8.5
729,22.26812800145007
730,10.234197113879107
731,0.0007116387581183001
732,-999.0
733,8.5
734,30.84600703482636
735,10.234197113879107
736,0.0007116387581183001
737,-999.0
738,8.5
739,22.26812800145007
740,10.234197113879107
741,0.0007116387581183001
742,-999.0
743,8.5
744,30.84600703482636
745,10.234197113879107
746,0.0007116387581183001
747,-999.0
748,8.5
749,22.26812800145007
750,10.234197113879107
751,0.0007116387581183001
752,-999.0
753,8.5
2,1,12,21, 0, 5, 0.00,60.00,WinterDesignDay
7,-18.8
8,-18.8
9,-18.8
10,0.0007118208673643848
11,100.0
12,48538.68281570028
13,38536.25600290016
14,8707.493881860042
15,30001.499999999996
16,20000.0
17,8707.493881860042
18,95782.43270046049
214,9.485109698314673
215,11.420292035213976
216,24.268128001450076
217,-18.802687632739666
218,3.81636170845788
219,31.84600703482636
220,0.20881449776412372
221,0.9999999999999999
222,0.0
223,0.0
224,0.0
225,0.9999999999999999
226,0.0
227,0.9999999999999999
228,0.0
229,0.0
230,0.0
231,-6.802687632739669
232,0.0
233,-4.18363829154212
234,30.84600703482636
235,9.485109698314673
236,11.420292035213976
237,6828.070636250549
238,88328.73176910575
239,12.936118630666229
240,1.0712872960494113
241,30.84600703482636
242,95782.43270046049
243,-7453.7009313547
244,0.0
245,0.0
246,-88328.73176910575
247,0.0
248,0.0
249,30.84600703482636
384,-88328.73176910577
447,0.0
448,5915.340422100001
449,0.5744571847205222
475,0.6303128870561737
476,0.0
477,94244.07219120575
491,94244.07219120573
492,2.9103830456733704e-11
493,912.7302141505476
519,0.6673177001541171
667,95782.43270046049
668,6828.070636250549
669,102610.50333671103
671,1.0
672,4.0
673,15.0
674,10.0
675,29.3
676,1.0
677,1.0
678,-999.0
679,-999.0
680,-999.0
681,1.0
682,15.0
683,1.0000499999999999
684,1.0
685,15.0
686,1.0
687,-999.0
688,-999.0
689,-999.0
690,1.0411162204876847
691,1.008223244097537
692,1.0411162204876847
693,0.9946817227642378
694,0.6303128870561737
695,0.944546933058426
696,1.0
697,1.0
698,1.7414987763720087
699,1.0
700,15.994746197532033
701,-18.8
702,1.0
703,16.01102199526721
704,-18.8
705,0.04200000000000001
706,30.84600703482636
707,10.234197113879107
708,0.0007116387581183001
709,-999.0
710,2.597719700253013
711,8.5
712,-18.802687632739666
713,21.69367081672955
714,10.234197113879107
715,0.0007116387581183001
716,21.69367081672955
717,8.5
718,-18.802687632739666
719,22.26812800145007
720,10.234197113879107
721,0.0007116387581183001
722,22.26812800145007
723,8.5
724,30.84600703482636
725,10.234197113879107
726,0.0007116387581183001
727,29.3
728,8.5
729,22.26812800145007
730,10.234197113879107
731,0.0007116387581183001
732,-999.0
733,8.5
734,30.84600703482636
735,10.234197113879107
736,0.0007116387581183001
737,-999.0
738,8.5
739,22.26812800145007
740,10.234197113879107
741,0.0007116387581183001
742,-999.0
743,8.5
744,30.84600703482636
745,10.234197113879107
746,0.0007116387581183001
747,-999.0
748,8.5
749,22.26812800145007
750,10.234197113879107
751,0.0007116387581183001
752,-999.0
753,8.5
2,1,12,21, 0, 6, 0.00,60.00,WinterDesignDay
7,-18.8
8,-18.8
9,-18.8
10,0.0007118208673643848
11,100.0
12,48538.68281570028
13,38536.25600290016
14,8707.493881860042
15,30001.499999999996
16,20000.0
17,8707.493881860042
18,95782.43270046049
214,9.485109698314673
215,11.420292035213976
216,24.268128001450076
217,-18.802687632739666
218,3.81636170845788
219,31.84600703482636
220,0.20881449776412372
221,0.9999999999999999
222,0.0
223,0.0
224,0.0
225,0.9999999999999999
226,0.0
227,0.9999999999999999
228,0.0
229,0.0
230,0.0
231,-6.802687632739669
232,0.0
233,-4.18363829154212
234,30.84600703482636
235,9.485109698314673
236,11.420292035213976
237,6828.070636250549
238,88328.73176910575
239,12.936118630666229
240,1.0712872960494113
241,30.84600703482636
242,95782.43270046049
243,-7453.7009313547
244,0.0
245,0.0
246,-88328.73176910575
247,0.0
248,0.0
249,30.84600703482636
384,-88328.73176910577
447,0.0
448,5915.340422100001
449,0.5744571847205222
475,0.6303128870561737
476,0.0
477,94244.07219120575
491,94244.07219120573
492,2.9103830456733704e-11
493,912.7302141505476
519,0.6673177001541171
667,95782.43270046049
668,6828.070636250549
669,102610.50333671103
671,1.0
672,4.0
673,15.0
674,10.0
675,29.3
676,1.0
677,1.0
678,-999.0
679,-999.0
680,-999.0
681,1.0
682,15.0
683,1.0000499999999999
684,1.0
685,15.0
686,1.0
687,-999.0
688,-999.0
689,-999.0
690,1.0411162204876847
691,1.008223244097537
692,1.0411162204876847
693,0.9946817227642378
694,0.6303128870561737
695,0.944546933058426
696,1.0
697,1.0
698,1.7414987763720087
699,1.0
700,15.994746197532033
701,-18.8
702,1.0
703,16.01102199526721
704,-18.8
705,0.04200000000000001
706,30.84600703482636
707,10.234197113879107
708,0.0007116387581183001
709,-999.0
710,2.597719700253013
711,8.5
712,-18.802687632739666
713,21.69367081672955
714,10.234197113879107
715,0.0007116387581183001
716,21.69367081672955
717,8.5
718,-18.802687632739666
719,22.26812800145007
720,10.234197113879107
721,0.0007116387581183001
722,22.26812800145007
723,8.5
724,30.84600703482636
725,10.234197113879107
726,0.0007116387581183001
727,29.3
728,8.5
729,22.26812800145007
730,10.234197113879107
731,0.0007116387581183001
732,-999.0
733,8.5
734,30.84600703482636
735,10.234197113879107
736,0.0007116387581183001
737,-999.0
738,8.5
739,22.26812800145007
740,10.234197113879107
741,0.0007116387581183001
742,-999.0
743,8.5
744,30.84600703482636
745,10.234197113879107
746,0.0007116387581183001
747,-999.0
748,8.5
749,22.26812800145007
750,10.234197113879107
751,0.0007116387581183001
752,-999.0
753,8.5
2,1,12,21, 0, 7, 0.00,60.00,WinterDesignDay
7,-18.8
8,-18.8
9,-18.8
10,0.0007118208673643848
11,100.0
12,48538.68281570028
13,38536.25600290016
14,8707.493881860042
15,30001.499999999996
16,20000.0
17,8707.493881860042
18,95782.43270046049
214,9.485109698314673
215,11.420292035213976
216,24.268128001450076
217,-18.802687632739666
218,3.81636170845788
219,31.84600703482636
220,0.20881449776412372
221,0.9999999999999999
222,0.0
223,0.0
224,0.0
225,0.9999999999999999
226,0.0
227,0.9999999999999999
228,0.0
229,0.0
230,0.0
231,-6.802687632739669
232,0.0
233,-4.18363829154212
234,30.84600703482636
235,9.485109698314673
236,11.420292035213976
237,6828.070636250549
238,88328.73176910575
239,12.936118630666229
240,1.0712872960494113
241,30.84600703482636
242,95782.43270046049
243,-7453.7009313547
244,0.0
245,0.0
246,-88328.73176910575
247,0.0
248,0.0
249,30.84600703482636
384,-88328.73176910577
447,0.0
448,5915.340422100001
449,0.5744571847205222
475,0.6303128870561737
476,0.0
477,94244.07219120575
491,94244.07219120573
492,2.9103830456733704e-11
493,912.7302141505476
519,0.6673177001541171
667,95782.43270046049
668,6828.070636250549
669,102610.50333671103
671,1.0
672,4.0
673,15.0
674,10.0
675,29.3
676,1.0
677,1.0
678,-999.0
679,-999.0
680,-999.0
681,1.0
682,15.0
683,1.0000499999999999
684,1.0
685,15.0
686,1.0
687,-999.0
688,-999.0
689,-999.0
690,1.0411162204876847
691,1.008223244097537
692,1.0411162204876847
693,0.9946817227642378
694,0.6303128870561737
695,0.944546933058426
696,1.0
697,1.0
698,1.7414987763720087
699,1.0
700,15.994746197532033
701,-18.8
702,1.0
703,16.01102199526721
704,-18.8
705,0.04200000000000001
706,30.84600703482636
707,10.234197113879107
708,0.0007116387581183001
709,-999.0
710,2.597719700253013
711,8.5
712,-18.802687632739666
713,21.69367081672955
714,10.234197113879107
715,0.0007116387581183001
716,21.69367081672955
717,8.5
718,-18.802687632739666
719,22.26812800145007
720,10.234197113879107
721,0.0007116387581183001
722,22.26812800145007
723,8.5
724,30.84600703482636
725,10.234197113879107
726,0.0007116387581183001
727,29.3
728,8.5
729,22.26812800145007
730,10.234197113879107
731,0.0007116387581183001
732,-999.0
733,8.5
734,30.84600703482636
735,10.234197113879107
736,0.0007116387581183001
737,-999.0
738,8.5
739,22.26812800145007
740,10.234197113879107
741,0.0007116387581183001
742,-999.0
743,8.5
744,30.84600703482636
745,10.234197113879107
746,0.0007116387581183001
747,-999.0
748,8.5
749,22.26812800145007
750,10.234197113879107
751,0.0007116387581183001
752,-999.0
753,8.5
2,1,12,21, 0, 8, 0.00,60.00,WinterDesignDay
7,-18.8
8,-18.8
9,-18.8
10,0.0007118208673643848
11,100.0
12,48538.68281570028
13,38536.25600290016
14,8707.493881860042
15,30001.499999999996
16,20000.0
17,8707.493881860042
18,95782.43270046049
214,9.485109698314673
215,11.420292035213976
216,24.268128001450076
217,-18.802687632739666
218,3.81636170845788
219,31.84600703482636