Program Version,EnergyPlus, Version 25.1.0-1c11a3d85f, YMD=2025.08.26 23:37
1,5,Environment Title[],Latitude[deg],Longitude[deg],Time Zone[],Elevation[m]
2,8,Day of Simulation[],Month[],Day of Month[],DST Indicator[1=yes 0=no],Hour[],StartMinute[],EndMinute[],DayType
3,5,Cumulative Day of Simulation[],Month[],Day of Month[],DST Indicator[1=yes 0=no],DayType  ! When Daily Report Variables Requested
4,2,Cumulative Days of Simulation[],Month[]  ! When Monthly Report Variables Requested
5,1,Cumulative Days of Simulation[] ! When Run Period Report Variables Requested
6,1,Calendar Year of Simulation[] ! When Annual Report Variables Requested
7,1,Environment,Site Outdoor Air Drybulb Temperature [C] !Hourly
8,1,Environment,Site Outdoor Air Dewpoint Temperature [C] !Hourly
9,1,Environment,Site Outdoor Air Wetbulb Temperature [C] !Hourly
10,1,Environment,Site Outdoor Air Humidity Ratio [kgWater/kgDryAir] !Hourly
11,1,Environment,Site Outdoor Air Relative Humidity [%] !Hourly
12,1,DATA CENTER SERVERS,ITE CPU Electricity Rate [W] !Hourly
13,1,DATA CENTER SERVERS,ITE Fan Electricity Rate [W] !Hourly
14,1,DATA CENTER SERVERS,ITE UPS Electricity Rate [W] !Hourly
15,1,DATA CENTER SERVERS,ITE CPU Electricity Rate at Design Inlet Conditions [W] !Hourly
16,1,DATA CENTER SERVERS,ITE Fan Electricity Rate at Design Inlet Conditions [W] !Hourly
17,1,DATA CENTER SERVERS,ITE UPS Heat Gain to Zone Rate [W] !Hourly
18,1,DATA CENTER SERVERS,ITE Total Heat Gain to Zone Rate [W] !Hourly
214,1,DATA CENTER SERVERS,ITE Standard Density Air Volume Flow Rate [m3/s] !Hourly
215,1,DATA CENTER SERVERS,ITE Air Mass Flow Rate [kg/s] !Hourly
216,1,DATA CENTER SERVERS,ITE Air Inlet Dry-Bulb Temperature [C] !Hourly
217,1,DATA CENTER SERVERS,ITE Air Inlet Dewpoint Temperature [C] !Hourly
218,1,DATA CENTER SERVERS,ITE Air Inlet Relative Humidity [%] !Hourly
219,1,DATA CENTER SERVERS,ITE Air Outlet Dry-Bulb Temperature [C] !Hourly
220,1,DATA CENTER SERVERS,ITE Supply Heat Index [] !Hourly
221,1,DATA CENTER SERVERS,ITE Air Inlet Operating Range Exceeded Time [hr] !Hourly
222,1,DATA CENTER SERVERS,ITE Air Inlet Dry-Bulb Temperature Above Operating Range Time [hr] !Hourly
223,1,DATA CENTER SERVERS,ITE Air Inlet Dry-Bulb Temperature Below Operating Range Time [hr] !Hourly
224,1,DATA CENTER SERVERS,ITE Air Inlet Dewpoint Temperature Above Operating Range Time [hr] !Hourly
225,1,DATA CENTER SERVERS,ITE Air Inlet Dewpoint Temperature Below Operating Range Time [hr] !Hourly
226,1,DATA CENTER SERVERS,ITE Air Inlet Relative Humidity Above Operating Range Time [hr] !Hourly
227,1,DATA CENTER SERVERS,ITE Air Inlet Relative Humidity Below Operating Range Time [hr] !Hourly
228,1,DATA CENTER SERVERS,ITE Air Inlet Dry-Bulb Temperature Difference Above Operating Range [deltaC] !Hourly
229,1,DATA CENTER SERVERS,ITE Air Inlet Dry-Bulb Temperature Difference Below Operating Range [deltaC] !Hourly
230,1,DATA CENTER SERVERS,ITE Air Inlet Dewpoint Temperature Difference Above Operating Range [deltaC] !Hourly
231,1,DATA CENTER SERVERS,ITE Air Inlet Dewpoint Temperature Difference Below Operating Range [deltaC] !Hourly
232,1,DATA CENTER SERVERS,ITE Air Inlet Relative Humidity Difference Above Operating Range [%] !Hourly
233,1,DATA CENTER SERVERS,ITE Air Inlet Relative Humidity Difference Below Operating Range [%] !Hourly
234,1,MAIN ZONE,Zone ITE Adjusted Return Air Temperature [C] !Hourly
235,1,MAIN ZONE,Zone ITE Standard Density Air Volume Flow Rate [m3/s] !Hourly
236,1,MAIN ZONE,Zone ITE Air Mass Flow Rate [kg/s] !Hourly
237,1,EMS,CRAC total system Power [W] !Hourly
238,1,EMS,CRAC Net Sensible Capacity [W] !Hourly
239,1,EMS,CRAC SCOP [] !Hourly
240,1,EMS,PUE [] !Hourly
241,1,MAIN ZONE,Zone Air Heat Balance Internal Convective Heat Gain Rate [W] !Hourly
242,1,MAIN ZONE,Zone Air Heat Balance Surface Convection Rate [W] !Hourly
243,1,MAIN ZONE,Zone Air Heat Balance Interzone Air Transfer Rate [W] !Hourly
244,1,MAIN ZONE,Zone Air Heat Balance Outdoor Air Transfer Rate [W] !Hourly
245,1,MAIN ZONE,Zone Air Heat Balance System Air Transfer Rate [W] !Hourly
246,1,MAIN ZONE,Zone Air Heat Balance System Convective Heat Gain Rate [W] !Hourly
247,1,MAIN ZONE,Zone Air Heat Balance Air Energy Storage Rate [W] !Hourly
248,1,MAIN ZONE,Zone Air Temperature [C] !Hourly
383,1,MAIN ZONE,Zone Predicted Sensible Load to Cooling Setpoint Heat Transfer Rate [W] !Hourly
446,1,MAIN ZONE BASEBOARD,Baseboard Electricity Rate [W] !Hourly
447,1,EC PLUG FAN 1,Fan Electricity Rate [W] !Hourly
448,1,EC PLUG FAN 1,Fan Rise in Air Temperature [deltaC] !Hourly
474,1,DX COOLING COIL SYSTEM 1,Coil System Part Load Ratio [] !Hourly
475,1,DX COOLING COIL SYSTEM 1,Coil System Frost Control Status [] !Hourly
476,1,MAIN COOLING COIL 1,Cooling Coil Total Cooling Rate [W] !Hourly
490,1,MAIN COOLING COIL 1,Cooling Coil Sensible Cooling Rate [W] !Hourly
491,1,MAIN COOLING COIL 1,Cooling Coil Latent Cooling Rate [W] !Hourly
492,1,MAIN COOLING COIL 1,Cooling Coil Electricity Rate [W] !Hourly
518,1,MAIN COOLING COIL 1,Cooling Coil Runtime Fraction [] !Hourly
666,1,Whole Building,Facility Total Building Electricity Demand Rate [W] !Hourly
667,1,Whole Building,Facility Total HVAC Electricity Demand Rate [W] !Hourly
668,1,Whole Building,Facility Total Electricity Demand Rate [W] !Hourly
670,1,SYSTEM AVAILABILITY SCHEDULE,Schedule Value [] !Hourly
671,1,ZONE CONTROL TYPE SCHED,Schedule Value [] !Hourly
672,1,HEATING SETPOINT SCHEDULE,Schedule Value [] !Hourly
673,1,SUPPLY AIR SETPOINT SCHEDULE,Schedule Value [] !Hourly
674,1,COOLING RETURN AIR SETPOINT SCHEDULE,Schedule Value [] !Hourly
675,1,DATA CENTER CPU LOADING SCHEDULE,Schedule Value [] !Hourly
676,1,DATA CENTER OPERATION SCHEDULE,Schedule Value [] !Hourly
677,1,LIEBERT ECONOPHASE QUADRATIC FIT,Performance Curve Input Variable 1 Value [] !Hourly
678,1,LIEBERT ECONOPHASE QUADRATIC FIT,Performance Curve Input Variable 2 Value [] !Hourly
679,1,LIEBERT ECONOPHASE QUADRATIC FIT,Performance Curve Output Value [] !Hourly
680,1,DATA CENTER SERVERS POWER FLOADTEMP,Performance Curve Input Variable 1 Value [] !Hourly
681,1,DATA CENTER SERVERS POWER FLOADTEMP,Performance Curve Input Variable 2 Value [] !Hourly
682,1,DATA CENTER SERVERS POWER FLOADTEMP,Performance Curve Output Value [] !Hourly
683,1,DATA CENTER SERVERS AIRFLOW FLOADTEMP,Performance Curve Input Variable 1 Value [] !Hourly
684,1,DATA CENTER SERVERS AIRFLOW FLOADTEMP,Performance Curve Input Variable 2 Value [] !Hourly
685,1,DATA CENTER SERVERS AIRFLOW FLOADTEMP,Performance Curve Output Value [] !Hourly
686,1,DATA CENTER RECIRCULATION FLOADTEMP,Performance Curve Input Variable 1 Value [] !Hourly
687,1,DATA CENTER RECIRCULATION FLOADTEMP,Performance Curve Input Variable 2 Value [] !Hourly
688,1,DATA CENTER RECIRCULATION FLOADTEMP,Performance Curve Output Value [] !Hourly
689,1,HPACCOOLCAPFFF,Performance Curve Input Variable 1 Value [] !Hourly
690,1,HPACCOOLCAPFFF,Performance Curve Output Value [] !Hourly
691,1,HPACCOOLEIRFFF,Performance Curve Input Variable 1 Value [] !Hourly
692,1,HPACCOOLEIRFFF,Performance Curve Output Value [] !Hourly
693,1,HPACCOOLPLFFPLR,Performance Curve Input Variable 1 Value [] !Hourly
694,1,HPACCOOLPLFFPLR,Performance Curve Output Value [] !Hourly
695,1,ECM FANPOWER FFLOW,Performance Curve Input Variable 1 Value [] !Hourly
696,1,ECM FANPOWER FFLOW,Performance Curve Output Value [] !Hourly
697,1,UPS EFFICIENCY FPLR,Performance Curve Input Variable 1 Value [] !Hourly
698,1,UPS EFFICIENCY FPLR,Performance Curve Output Value [] !Hourly
699,1,COOL CAP MOD FUNC OF TEMPERATURE,Performance Curve Input Variable 1 Value [] !Hourly
700,1,COOL CAP MOD FUNC OF TEMPERATURE,Performance Curve Input Variable 2 Value [] !Hourly
701,1,COOL CAP MOD FUNC OF TEMPERATURE,Performance Curve Output Value [] !Hourly
702,1,LIEBERT ECONOPHASE EIR FUNC T,Performance Curve Input Variable 1 Value [] !Hourly
703,1,LIEBERT ECONOPHASE EIR FUNC T,Performance Curve Input Variable 2 Value [] !Hourly
704,1,LIEBERT ECONOPHASE EIR FUNC T,Performance Curve Output Value [] !Hourly
705,1,SUPPLY INLET NODE,System Node Temperature [C] !Hourly
706,1,SUPPLY INLET NODE,System Node Mass Flow Rate [kg/s] !Hourly
707,1,SUPPLY INLET NODE,System Node Humidity Ratio [kgWater/kgDryAir] !Hourly
708,1,SUPPLY INLET NODE,System Node Setpoint Temperature [C] !Hourly
709,1,SUPPLY INLET NODE,System Node Relative Humidity [%] !Hourly
710,1,SUPPLY INLET NODE,System Node Standard Density Volume Flow Rate [m3/s] !Hourly
711,1,SUPPLY INLET NODE,System Node Dewpoint Temperature [C] !Hourly
712,1,MAIN COOLING COIL 1 OUTLET NODE,System Node Temperature [C] !Hourly
713,1,MAIN COOLING COIL 1 OUTLET NODE,System Node Mass Flow Rate [kg/s] !Hourly
714,1,MAIN COOLING COIL 1 OUTLET NODE,System Node Humidity Ratio [kgWater/kgDryAir] !Hourly
715,1,MAIN COOLING COIL 1 OUTLET NODE,System Node Setpoint Temperature [C] !Hourly
716,1,MAIN COOLING COIL 1 OUTLET NODE,System Node Standard Density Volume Flow Rate [m3/s] !Hourly
717,1,MAIN COOLING COIL 1 OUTLET NODE,System Node Dewpoint Temperature [C] !Hourly
718,1,SUPPLY OUTLET NODE,System Node Temperature [C] !Hourly
719,1,SUPPLY OUTLET NODE,System Node Mass Flow Rate [kg/s] !Hourly
720,1,SUPPLY OUTLET NODE,System Node Humidity Ratio [kgWater/kgDryAir] !Hourly
721,1,SUPPLY OUTLET NODE,System Node Setpoint Temperature [C] !Hourly
722,1,SUPPLY OUTLET NODE,System Node Standard Density Volume Flow Rate [m3/s] !Hourly
723,1,MAIN ZONE NODE,System Node Temperature [C] !Hourly
724,1,MAIN ZONE NODE,System Node Mass Flow Rate [kg/s] !Hourly
725,1,MAIN ZONE NODE,System Node Humidity Ratio [kgWater/kgDryAir] !Hourly
726,1,MAIN ZONE NODE,System Node Setpoint Temperature [C] !Hourly
727,1,MAIN ZONE NODE,System Node Standard Density Volume Flow Rate [m3/s] !Hourly
728,1,MAIN ZONE INLET NODE,System Node Temperature [C] !Hourly
729,1,MAIN ZONE INLET NODE,System Node Mass Flow Rate [kg/s] !Hourly
730,1,MAIN ZONE INLET NODE,System Node Humidity Ratio [kgWater/kgDryAir] !Hourly
731,1,MAIN ZONE INLET NODE,System Node Setpoint Temperature [C] !Hourly
732,1,MAIN ZONE INLET NODE,System Node Standard Density Volume Flow Rate [m3/s] !Hourly
733,1,MAIN ZONE OUTLET NODE,System Node Temperature [C] !Hourly
734,1,MAIN ZONE OUTLET NODE,System Node Mass Flow Rate [kg/s] !Hourly
735,1,MAIN ZONE OUTLET NODE,System Node Humidity Ratio [kgWater/kgDryAir] !Hourly
736,1,MAIN ZONE OUTLET NODE,System Node Setpoint Temperature [C] !Hourly
737,1,MAIN ZONE OUTLET NODE,System Node Standard Density Volume Flow Rate [m3/s] !Hourly
738,1,ZONE EQUIPMENT INLET NODE,System Node Temperature [C] !Hourly
739,1,ZONE EQUIPMENT INLET NODE,System Node Mass Flow Rate [kg/s] !Hourly
740,1,ZONE EQUIPMENT INLET NODE,System Node Humidity Ratio [kgWater/kgDryAir] !Hourly
741,1,ZONE EQUIPMENT INLET NODE,System Node Setpoint Temperature [C] !Hourly
742,1,ZONE EQUIPMENT INLET NODE,System Node Standard Density Volume Flow Rate [m3/s] !Hourly
743,1,ZONE EQUIPMENT OUTLET NODE,System Node Temperature [C] !Hourly
744,1,ZONE EQUIPMENT OUTLET NODE,System Node Mass Flow Rate [kg/s] !Hourly
745,1,ZONE EQUIPMENT OUTLET NODE,System Node Humidity Ratio [kgWater/kgDryAir] !Hourly
746,1,ZONE EQUIPMENT OUTLET NODE,System Node Setpoint Temperature [C] !Hourly
747,1,ZONE EQUIPMENT OUTLET NODE,System Node Standard Density Volume Flow Rate [m3/s] !Hourly
748,1,MAIN ZONE ATU IN NODE,System Node Temperature [C] !Hourly
749,1,MAIN ZONE ATU IN NODE,System Node Mass Flow Rate [kg/s] !Hourly
750,1,MAIN ZONE ATU IN NODE,System Node Humidity Ratio [kgWater/kgDryAir] !Hourly
751,1,MAIN ZONE ATU IN NODE,System Node Setpoint Temperature [C] !Hourly
752,1,MAIN ZONE ATU IN NODE,System Node Standard Density Volume Flow Rate [m3/s] !Hourly
End of Data Dictionary
1,DENVER CENTENNIAL ANN HTG 99.6% CONDNS DB,  37.62,-122.40,  -8.00,   2.00
2,1,12,21, 0, 1, 0.00,60.00,WinterDesignDay
7,-18.8
8,-18.8
9,-18.8
10,0.0007118208673643848
11,100.0
12,48538.68281570028
13,38536.25600290015
14,8707.49388186004
15,30001.499999999996
16,20000.0
17,8707.49388186004
18,95782.43270046047
214,9.485109698314671
215,11.42029203521397
216,24.26812800145007
217,-18.802687632739666
218,3.816361708457879
219,31.846007034826357
220,0.20881449776412367
221,0.9999999999999999
222,0.0
223,0.0
224,0.0
225,0.9999999999999999
226,0.0
227,0.9999999999999999
228,0.0
229,0.0
230,0.0
231,-6.802687632739669
232,0.0
233,-4.183638291542121
234,30.846007034826357
235,9.485109698314671
236,11.42029203521397
237,6828.070636250544
238,88328.73176910577
239,12.936118630666238
240,1.0712872960494113
241,95782.43270046047
242,-7453.700931354689
243,0.0
244,0.0
245,-88328.73176910575
246,0.0
247,-3.668518022314056e-12
248,30.84600703482636
383,-88328.73176910578
446,0.0
447,5915.340422099998
448,0.5744571847205222
474,0.6303128870561737
475,0.0
476,94244.07219120575
490,94244.07219120573
491,2.6678511252005894e-11
492,912.7302141505476
518,0.6673177001541171
666,95782.43270046044
667,6828.070636250547
668,102610.50333671099
670,1.0
671,4.0
672,15.0
673,10.0
674,29.3
675,1.0
676,1.0
677,-999.0
678,-999.0
679,-999.0
680,1.0
681,15.0
682,1.0000499999999999
683,1.0
684,15.0
685,1.0
686,-999.0
687,-999.0
688,-999.0
689,1.0411162204876847
690,1.008223244097537
691,1.0411162204876847
692,0.9946817227642378
693,0.6303128870561737
694,0.944546933058426
695,1.0
696,1.0
697,1.7414987763720085
698,1.0
699,15.994746197532033
700,-18.8
701,1.0
702,16.01102199526721
703,-18.8
704,0.04200000000000001
705,30.84600703482636
706,10.234197113879107
707,0.0007116387581183
708,-999.0
709,2.5977197002530126
710,8.5
711,-18.802687632739666
712,21.693670816729547
713,10.234197113879107
714,0.0007116387581183
715,21.693670816729547
716,8.5
717,-18.802687632739666
718,22.26812800145007
719,10.234197113879107
720,0.0007116387581183
721,22.268128001450066
722,8.5
723,30.84600703482636
724,10.234197113879107
725,0.0007116387581183
726,29.3
727,8.5
728,22.26812800145007
729,10.234197113879107
730,0.0007116387581183
731,-999.0
732,8.5
733,30.84600703482636
734,10.234197113879107
735,0.0007116387581183
736,-999.0
737,8.5
738,22.26812800145007
739,10.234197113879107
740,0.0007116387581183
741,-999.0
742,8.5
743,30.84600703482636
744,10.234197113879107
745,0.0007116387581183
746,-999.0
747,8.5
748,22.26812800145007
749,10.234197113879107
750,0.0007116387581183
751,-999.0
752,8.5
2,1,12,21, 0, 2, 0.00,60.00,WinterDesignDay
7,-18.8
8,-18.8
9,-18.8
10,0.0007118208673643848
11,100.0
12,48538.682815700275
13,38536.25600290013
14,8707.493881860037
15,30001.499999999996
16,20000.0
17,8707.493881860037
18,95782.43270046043
214,9.485109698314668
215,11.420292035213967
216,24.268128001450066
217,-18.802687632739666
218,3.81636170845788
219,31.846007034826357
220,0.20881449776412364
221,0.9999999999999999
222,0.0
223,0.0
224,0.0
225,0.9999999999999999
226,0.0
227,0.9999999999999999
228,0.0
229,0.0
230,0.0
231,-6.802687632739669
232,0.0
233,-4.18363829154212
234,30.846007034826357
235,9.485109698314668
236,11.420292035213967
237,6828.070636250547
238,88328.7317691057
239,12.936118630666227
240,1.0712872960494113
241,95782.43270046043
242,-7453.700931354684
243,0.0
244,0.0
245,-88328.73176910571
246,0.0
247,1.222839340771352e-12
248,30.846007034826354
383,-88328.73176910573
446,0.0
447,5915.340422099999
448,0.5744571847205222
474,0.6303128870561732
475,0.0
476,94244.07219120569
490,94244.07219120568
491,1.9402553637822468e-11
492,912.730214150547
518,0.6673177001541166
666,95782.43270046043
667,6828.070636250547
668,102610.50333671097
670,1.0
671,4.0
672,15.0
673,10.0
674,29.3
675,1.0
676,1.0
677,-999.0
678,-999.0
679,-999.0
680,1.0
681,15.0
682,1.0000499999999999
683,1.0
684,15.0
685,1.0
686,-999.0
687,-999.0
688,-999.0
689,1.0411162204876847
690,1.008223244097537
691,1.0411162204876847
692,0.9946817227642378
693,0.6303128870561732
694,0.944546933058426
695,1.0
696,1.0
697,1.7414987763720082
698,1.0
699,15.994746197532033
700,-18.8
701,1.0
702,16.01102199526721
703,-18.8
704,0.04200000000000001
705,30.846007034826354
706,10.234197113879107
707,0.0007116387581183001
708,-999.0
709,2.597719700253013
710,8.5
711,-18.802687632739666
712,21.69367081672954
713,10.234197113879107
714,0.0007116387581183001
715,21.69367081672954
716,8.5
717,-18.802687632739666
718,22.268128001450066
719,10.234197113879107
720,0.0007116387581183001
721,22.268128001450066
722,8.5
723,30.846007034826354
724,10.234197113879107
725,0.0007116387581183001
726,29.3
727,8.5
728,22.268128001450066
729,10.234197113879107
730,0.0007116387581183001
731,-999.0
732,8.5
733,30.846007034826354
734,10.234197113879107
735,0.0007116387581183001
736,-999.0
737,8.5
738,22.268128001450066
739,10.234197113879107
740,0.0007116387581183001
741,-999.0
742,8.5
743,30.846007034826354
744,10.234197113879107
745,0.0007116387581183001
746,-999.0
747,8.5
748,22.268128001450066
749,10.234197113879107
750,0.0007116387581183001
751,-999.0
752,8.5
2,1,12,21, 0, 3, 0.00,60.00,WinterDesignDay
7,-18.8
8,-18.8
9,-18.8
10,0.0007118208673643848
11,100.0
12,48538.682815700275
13,38536.256002900154
14,8707.49388186004
15,30001.499999999996
16,20000.0
17,8707.49388186004
18,95782.43270046047
214,9.485109698314671
215,11.42029203521397
216,24.268128001450066
217,-18.802687632739666
218,3.81636170845788
219,31.846007034826357
220,0.20881449776412367
221,0.9999999999999999
222,0.0
223,0.0
224,0.0
225,0.9999999999999999
226,0.0
227,0.9999999999999999
228,0.0
229,0.0
230,0.0
231,-6.802687632739669
232,0.0
233,-4.18363829154212
234,30.846007034826357
235,9.485109698314671
236,11.42029203521397
237,6828.070636250548
238,88328.73176910573
239,12.936118630666229
240,1.0712872960494113
241,95782.43270046047
242,-7453.700931354691
243,0.0
244,0.0
245,-88328.73176910575
246,0.0
247,1.222839340771352e-12
248,30.846007034826357
383,-88328.73176910577
446,0.0
447,5915.340422100001
448,0.5744571847205222
474,0.6303128870561737
475,0.0
476,94244.07219120573
490,94244.0721912057
491,2.4253192047278087e-11
492,912.7302141505476
518,0.6673177001541171
666,95782.43270046047
667,6828.070636250548
668,102610.50333671102
670,1.0
671,4.0
672,15.0
673,10.0
674,29.3
675,1.0
676,1.0
677,-999.0
678,-999.0
679,-999.0
680,1.0
681,15.0
682,1.0000499999999999
683,1.0
684,15.0
685,1.0
686,-999.0
687,-999.0
688,-999.0
689,1.0411162204876847
690,1.008223244097537
691,1.0411162204876847
692,0.9946817227642378
693,0.6303128870561737
694,0.944546933058426
695,1.0
696,1.0
697,1.7414987763720085
698,1.0
699,15.994746197532033
700,-18.8
701,1.0
702,16.01102199526721
703,-18.8
704,0.04200000000000001
705,30.846007034826357
706,10.234197113879107
707,0.0007116387581183001
708,-999.0
709,2.597719700253013
710,8.5
711,-18.802687632739666
712,21.693670816729547
713,10.234197113879107
714,0.0007116387581183001
715,21.693670816729547
716,8.5
717,-18.802687632739666
718,22.26812800145007
719,10.234197113879107
720,0.0007116387581183001
721,22.268128001450066
722,8.5
723,30.846007034826357
724,10.234197113879107
725,0.0007116387581183001
726,29.3
727,8.5
728,22.26812800145007
729,10.234197113879107
730,0.0007116387581183001
731,-999.0
732,8.5
733,30.846007034826357
734,10.234197113879107
735,0.0007116387581183001
736,-999.0
737,8.5
738,22.26812800145007
739,10.234197113879107
740,0.0007116387581183001
741,-999.0
742,8.5
743,30.846007034826357
744,10.234197113879107
745,0.0007116387581183001
746,-999.0
747,8.5
748,22.26812800145007
749,10.234197113879107
750,0.0007116387581183001
751,-999.0
752,8.5
2,1,12,21, 0, 4, 0.00,60.00,WinterDesignDay
7,-18.8
8,-18.8
9,-18.8
10,0.0007118208673643848
11,100.0
12,48538.68281570028
13,38536.256002900154
14,8707.493881860042
15,30001.499999999996
16,20000.0
17,8707.493881860042
18,95782.43270046049
214,9.485109698314673
215,11.420292035213974
216,24.268128001450076
217,-18.802687632739666
218,3.81636170845788
219,31.84600703482636
220,0.20881449776412372
221,0.9999999999999999
222,0.0
223,0.0
224,0.0
225,0.9999999999999999
226,0.0
227,0.9999999999999999
228,0.0
229,0.0
230,0.0
231,-6.802687632739669
232,0.0
233,-4.18363829154212
234,30.84600703482636
235,9.485109698314673
236,11.420292035213974
237,6828.070636250549
238,88328.73176910573
239,12.936118630666229
240,1.0712872960494113
241,95782.43270046049
242,-7453.700931354699
243,0.0
244,0.0
245,-88328.73176910575
246,0.0
247,1.222839340771352e-12
248,30.84600703482636
383,-88328.73176910577
446,0.0
447,5915.340422100001
448,0.5744571847205222
474,0.6303128870561737
475,0.0
476,94244.07219120573
490,94244.07219120573
491,2.6678511252005894e-11
492,912.7302141505476
518,0.6673177001541171
666,95782.43270046047
667,6828.070636250549
668,102610.50333671102
670,1.0
671,4.0
672,15.0
673,10.0
674,29.3
675,1.0
676,1.0
677,-999.0
678,-999.0
679,-999.0
680,1.0
681,15.0
682,1.0000499999999999
683,1.0
684,15.0
685,1.0
686,-999.0
687,-999.0
688,-999.0
689,1.0411162204876847
690,1.008223244097537
691,1.0411162204876847
692,0.9946817227642378
693,0.6303128870561737
694,0.944546933058426
695,1.0
696,1.0
697,1.7414987763720087
698,1.0
699,15.994746197532033
700,-18.8
701,1.0
702,16.01102199526721
703,-18.8
704,0.04200000000000001
705,30.84600703482636
706,10.234197113879107
707,0.0007116387581183001
708,-999.0
709,2.597719700253013
710,8.5
711,-18.802687632739666
712,21.69367081672955
713,10.234197113879107
714,0.0007116387581183001
715,21.69367081672955
716,8.5
717,-18.802687632739666
718,22.26812800145007
719,10.234197113879107
720,0.0007116387581183001
721,22.26812800145007
722,8.5
723,30.84600703482636
724,10.234197113879107
725,0.0007116387581183001
726,29.3
727,8.5
728,22.26812800145007
729,10.234197113879107
730,0.0007116387581183001
731,-999.0
732,8.5
733,30.84600703482636
734,10.234197113879107
735,0.0007116387581183001
736,-999.0
737,8.5
738,22.26812800145007
739,10.234197113879107
740,0.0007116387581183001
741,-999.0
742,8.5
743,30.84600703482636
744,10.234197113879107
745,0.0007116387581183001
746,-999.0
747,8.5
748,22.26812800145007
749,10.234197113879107
750,0.0007116387581183001
751,-999.0
752,8.5
2,1,12,21, 0, 5, 0.00,60.00,WinterDesignDay
7,-18.8
8,-18.8
9,-18.8
10,0.0007118208673643848
11,100.0
12,48538.68281570028
13,38536.25600290016
14,8707.493881860042
15,30001.499999999996
16,20000.0
17,8707.493881860042
18,95782.43270046049
214,9.485109698314673
215,11.420292035213976
216,24.268128001450076
217,-18.802687632739666
218,3.81636170845788
219,31.84600703482636
220,0.20881449776412372
221,0.9999999999999999
222,0.0
223,0.0
224,0.0
225,0.9999999999999999
226,0.0
227,0.9999999999999999
228,0.0
229,0.0
230,0.0
231,-6.802687632739669
232,0.0
233,-4.18363829154212
234,30.84600703482636
235,9.485109698314673
236,11.420292035213976
237,6828.070636250549
238,88328.73176910575
239,12.936118630666229
240,1.0712872960494113
241,95782.43270046049
242,-7453.7009313547
243,0.0
244,0.0
245,-88328.73176910575
246,0.0
247,0.0
248,30.84600703482636
383,-88328.73176910577
446,0.0
447,5915.340422100001
448,0.5744571847205222
474,0.6303128870561737
475,0.0
476,94244.07219120575
490,94244.07219120573
491,2.9103830456733704e-11
492,912.7302141505476
518,0.6673177001541171
666,95782.43270046049
667,6828.070636250549
668,102610.50333671103
670,1.0
671,4.0
672,15.0
673,10.0
674,29.3
675,1.0
676,1.0
677,-999.0
678,-999.0
679,-999.0
680,1.0
681,15.0
682,1.0000499999999999
683,1.0
684,15.0
685,1.0
686,-999.0
687,-999.0
688,-999.0
689,1.0411162204876847
690,1.008223244097537
691,1.0411162204876847
692,0.9946817227642378
693,0.6303128870561737
694,0.944546933058426
695,1.0
696,1.0
697,1.7414987763720087
698,1.0
699,15.994746197532033
700,-18.8
701,1.0
702,16.01102199526721
703,-18.8
704,0.04200000000000001
705,30.84600703482636
706,10.234197113879107
707,0.0007116387581183001
708,-999.0
709,2.597719700253013
710,8.5
711,-18.802687632739666
712,21.69367081672955
713,10.234197113879107
714,0.0007116387581183001
715,21.69367081672955
716,8.5
717,-18.802687632739666
718,22.26812800145007
719,10.234197113879107
720,0.0007116387581183001
721,22.26812800145007
722,8.5
723,30.84600703482636
724,10.234197113879107
725,0.0007116387581183001
726,29.3
727,8.5
728,22.26812800145007
729,10.234197113879107
730,0.0007116387581183001
731,-999.0
732,8.5
733,30.84600703482636
734,10.234197113879107
735,0.0007116387581183001
736,-999.0
737,8.5
738,22.26812800145007
739,10.234197113879107
740,0.0007116387581183001
741,-999.0
742,8.5
743,30.84600703482636
744,10.234197113879107
745,0.0007116387581183001
746,-999.0
747,8.5
748,22.26812800145007
749,10.234197113879107
750,0.0007116387581183001
751,-999.0
752,8.5
2,1,12,21, 0, 6, 0.00,60.00,WinterDesignDay
7,-18.8
8,-18.8
9,-18.8
10,0.0007118208673643848
11,100.0
12,48538.68281570028
13,38536.25600290016
14,8707.493881860042
15,30001.499999999996
16,20000.0
17,8707.493881860042
18,95782.43270046049
214,9.485109698314673
215,11.420292035213976
216,24.268128001450076
217,-18.802687632739666
218,3.81636170845788
219,31.84600703482636
220,0.20881449776412372
221,0.9999999999999999
222,0.0
223,0.0
224,0.0
225,0.9999999999999999
226,0.0
227,0.9999999999999999
228,0.0
229,0.0
230,0.0
231,-6.802687632739669
232,0.0
233,-4.18363829154212
234,30.84600703482636
235,9.485109698314673
236,11.420292035213976
237,6828.070636250549
238,88328.73176910575
239,12.936118630666229
240,1.0712872960494113
241,95782.43270046049
242,-7453.7009313547
243,0.0
244,0.0
245,-88328.73176910575
246,0.0
247,0.0
248,30.84600703482636
383,-88328.73176910577
446,0.0
447,5915.340422100001
448,0.5744571847205222
474,0.6303128870561737
475,0.0
476,94244.07219120575
490,94244.07219120573
491,2.9103830456733704e-11
492,912.7302141505476
518,0.6673177001541171
666,95782.43270046049
667,6828.070636250549
668,102610.50333671103
670,1.0
671,4.0
672,15.0
673,10.0
674,29.3
675,1.0
676,1.0
677,-999.0
678,-999.0
679,-999.0
680,1.0
681,15.0
682,1.0000499999999999
683,1.0
684,15.0
685,1.0
686,-999.0
687,-999.0
688,-999.0
689,1.0411162204876847
690,1.008223244097537
691,1.0411162204876847
692,0.9946817227642378
693,0.6303128870561737
694,0.944546933058426
695,1.0
696,1.0
697,1.7414987763720087
698,1.0
699,15.994746197532033
700,-18.8
701,1.0
702,16.01102199526721
703,-18.8
704,0.04200000000000001
705,30.84600703482636
706,10.234197113879107
707,0.0007116387581183001
708,-999.0
709,2.597719700253013
710,8.5
711,-18.802687632739666
712,21.69367081672955
713,10.234197113879107
714,0.0007116387581183001
715,21.69367081672955
716,8.5
717,-18.802687632739666
718,22.26812800145007
719,10.234197113879107
720,0.0007116387581183001
721,22.26812800145007
722,8.5
723,30.84600703482636
724,10.234197113879107
725,0.0007116387581183001
726,29.3
727,8.5
728,22.26812800145007
729,10.234197113879107
730,0.0007116387581183001
731,-999.0
732,8.5
733,30.84600703482636
734,10.234197113879107
735,0.0007116387581183001
736,-999.0
737,8.5
738,22.26812800145007
739,10.234197113879107
740,0.0007116387581183001
741,-999.0
742,8.5
743,30.84600703482636
744,10.234197113879107
745,0.0007116387581183001
746,-999.0
747,8.5
748,22.26812800145007
749,10.234197113879107
750,0.0007116387581183001
751,-999.0
752,8.5
2,1,12,21, 0, 7, 0.00,60.00,WinterDesignDay
7,-18.8
8,-18.8
9,-18.8
10,0.0007118208673643848
11,100.0
12,48538.68281570028
13,38536.25600290016
14,8707.493881860042
15,30001.499999999996
16,20000.0
17,8707.493881860042
18,95782.43270046049
214,9.485109698314673
215,11.420292035213976
216,24.268128001450076
217,-18.802687632739666
218,3.81636170845788
219,31.84600703482636
220,0.20881449776412372
221,0.9999999999999999
222,0.0
223,0.0
224,0.0
225,0.9999999999999999
226,0.0
227,0.9999999999999999
228,0.0
229,0.0
230,0.0
231,-6.802687632739669
232,0.0
233,-4.18363829154212
234,30.84600703482636
235,9.485109698314673
236,11.420292035213976
237,6828.070636250549
238,88328.73176910575
239,12.936118630666229
240,1.0712872960494113
241,95782.43270046049
242,-7453.7009313547
243,0.0
244,0.0
245,-88328.73176910575
246,0.0
247,0.0
248,30.84600703482636
383,-88328.73176910577
446,0.0
447,5915.340422100001
448,0.5744571847205222
474,0.6303128870561737
475,0.0
476,94244.07219120575
490,94244.07219120573
491,2.9103830456733704e-11
492,912.7302141505476
518,0.6673177001541171
666,95782.43270046049
667,6828.070636250549
668,102610.50333671103
670,1.0
671,4.0
672,15.0
673,10.0
674,29.3
675,1.0
676,1.0
677,-999.0
678,-999.0
679,-999.0
680,1.0
681,15.0
682,1.0000499999999999
683,1.0
684,15.0
685,1.0
686,-999.0
687,-999.0
688,-999.0
689,1.0411162204876847
690,1.008223244097537
691,1.0411162204876847
692,0.9946817227642378
693,0.6303128870561737
694,0.944546933058426
695,1.0
696,1.0
697,1.7414987763720087
698,1.0
699,15.994746197532033
700,-18.8
701,1.0
702,16.01102199526721
703,-18.8
704,0.04200000000000001
705,30.84600703482636
706,10.234197113879107
707,0.0007116387581183001
708,-999.0
709,2.597719700253013
710,8.5
711,-18.802687632739666
712,21.69367081672955
713,10.234197113879107
714,0.0007116387581183001
715,21.69367081672955
716,8.5
717,-18.802687632739666
718,22.26812800145007
719,10.234197113879107
720,0.0007116387581183001
721,22.26812800145007
722,8.5
723,30.84600703482636
724,10.234197113879107
725,0.0007116387581183001
726,29.3
727,8.5
728,22.26812800145007
729,10.234197113879107
730,0.0007116387581183001
731,-999.0
732,8.5
733,30.84600703482636
734,10.234197113879107
735,0.0007116387581183001
736,-999.0
737,8.5
738,22.26812800145007
739,10.234197113879107
740,0.0007116387581183001
741,-999.0
742,8.5
743,30.84600703482636
744,10.234197113879107
745,0.0007116387581183001
746,-999.0
747,8.5
748,22.26812800145007
749,10.234197113879107
750,0.0007116387581183001
751,-999.0
752,8.5
2,1,12,21, 0, 8, 0.00,60.00,WinterDesignDay
7,-18.8
8,-18.8
9,-18.8
10,0.0007118208673643848
11,100.0
12,48538.68281570028
13,38536.25600290016
14,8707.493881860042
15,30001.499999999996
16,20000.0
17,8707.493881860042
18,95782.43270046049
214,9.485109698314673
215,11.420292035213976
216,24.268128001450076
217,-18.802687632739666
218,3.81636170845788
219,31.84600703482636
220,0.20881449776412372
221,0.9999999999999999
222,0.0
223,0.0
224,0.0
225,0.9999999999999999
226,0.0
227,0.9999999999999999
228,0.0
229,0.0
230,0.0
231,-6.802687632739669
232,0.0
233,-4.18363829154212